# vtk DataFile Version 5.1
vtk output
ASCII
DATASET POLYDATA
POINTS 1020 float
0 0 0 0 0 0.1 0 0.1 0.1 
0 0.1 0 0.0954285 -0.00327528 -0.00102693 0.0982172 0.0978037 -0.000471234 
0.0981625 0.0978062 0.100176 0.0954276 -0.00339568 0.100397 0.191255 -0.00809766 7.78499e-05 
0.196158 0.0927899 1.67365e-05 0.195857 0.0932075 0.100636 0.190948 -0.00773864 0.101317 
0.287373 -0.0151845 0.0013154 0.294216 0.085652 0.000640116 0.293818 0.0866415 0.10121 
0.28694 -0.014208 0.102475 0.383844 -0.0241408 0.00259822 0.392445 0.0766 0.00126546 
0.39204 0.0781965 0.101766 0.383396 -0.0225459 0.103611 0.480751 -0.034745 0.00385734 
0.490885 0.0658985 0.00187261 0.49049 0.0681085 0.102305 0.480311 -0.0325346 0.104732 
0.578103 -0.0467653 0.00510078 0.589548 0.0537787 0.0024662 0.589164 0.0566023 0.102832 
0.577676 -0.0439408 0.105839 0.6759 -0.0599786 0.00633052 0.688433 0.0404668 0.00304761 
0.68806 0.0439034 0.103347 0.675485 -0.0565406 0.106934 0.774136 -0.0741635 0.00754733 
0.787537 0.0261845 0.00361728 0.787175 0.0302333 0.103851 0.773732 -0.0701127 0.108017 
0.872807 -0.0891015 0.0087512 0.886857 0.0111503 0.00417526 0.886507 0.0158106 0.104345 
0.872414 -0.0844387 0.109089 0.971906 -0.104577 0.00994199 0.986392 -0.00441981 0.00472146 
0.986054 0.000850925 0.104827 0.971525 -0.0993029 0.11015 1.07143 -0.120375 0.0111186 
1.08614 -0.0203125 0.00525564 1.08581 -0.0144325 0.105298 1.07106 -0.114492 0.111197 
1.17137 -0.13628 0.0122769 1.18609 -0.0363129 0.0057768 1.18578 -0.0298272 0.105758 
1.17102 -0.129791 0.112228 1.27174 -0.152068 0.0134069 1.28625 -0.0521985 0.00628135 
1.28595 -0.0451172 0.106205 1.2714 -0.144984 0.113233 1.37251 -0.167511 0.0144929 
1.38661 -0.0677378 0.00676313 1.38633 -0.0600799 0.106631 1.37219 -0.159852 0.114199 
1.47366 -0.182383 0.0155165 1.48716 -0.0826982 0.00721506 1.48691 -0.0744954 0.107031 
1.47337 -0.174179 0.115109 1.57518 -0.196474 0.0164619 1.58789 -0.0968679 0.00763095 
1.58766 -0.0881608 0.107398 1.57491 -0.187767 0.115951 1.67702 -0.209602 0.0173191 
1.68878 -0.110064 0.00800724 1.68857 -0.1009 0.107729 1.67678 -0.200438 0.116715 
1.77915 -0.221609 0.018084 1.78981 -0.12213 0.0083429 1.78963 -0.112558 0.108024 
1.77893 -0.212036 0.117398 1.88152 -0.232359 0.0187555 1.89097 -0.132933 0.00863769 
1.89081 -0.123003 0.108284 1.88134 -0.222429 0.117998 1.98412 -0.241736 0.0193335 
1.99223 -0.142354 0.0088915 1.99209 -0.132116 0.108508 1.98396 -0.231497 0.118515 
2.08689 -0.24964 0.0198178 2.09359 -0.150295 0.00910429 2.09347 -0.139798 0.108695 
2.08676 -0.239142 0.118949 2.18982 -0.255986 0.0202085 2.19502 -0.156671 0.00927598 
2.19493 -0.145966 0.108847 2.18972 -0.24528 0.119299 2.29286 -0.260711 0.0205055 
2.29651 -0.161417 0.00940651 2.29644 -0.150553 0.108963 2.29279 -0.249845 0.119566 
2.39598 -0.263763 0.0207086 2.39803 -0.164484 0.00949579 2.39799 -0.153511 0.109043 
2.39594 -0.252789 0.11975 2.49915 -0.265112 0.0208177 2.49958 -0.165839 0.00954372 
2.49957 -0.154808 0.109087 2.49913 -0.254079 0.11985 2.60233 -0.264743 0.0208329 
2.60114 -0.165469 0.00955023 2.60115 -0.154429 0.109094 2.60234 -0.253701 0.119866 
2.70549 -0.262657 0.0207539 2.70269 -0.163375 0.00951523 2.70272 -0.152376 0.109065 
2.70553 -0.251656 0.119799 2.80859 -0.258875 0.0205807 2.80421 -0.159576 0.00943863 
2.80426 -0.148668 0.108999 2.80866 -0.247965 0.119648 2.91161 -0.253432 0.0203132 
2.90568 -0.154109 0.00932034 2.90576 -0.143342 0.108897 2.9117 -0.242663 0.119413 
3.0145 -0.246382 0.0199514 3.00709 -0.147028 0.00916029 3.0072 -0.136451 0.108758 
3.01462 -0.235803 0.119095 3.11723 -0.237795 0.0194951 3.10842 -0.138402 0.00895838 
3.10856 -0.128065 0.108582 3.11738 -0.227457 0.118692 3.21977 -0.227759 0.0189442 
3.20966 -0.128319 0.00871452 3.20982 -0.118273 0.10837 3.21995 -0.217712 0.118205 
3.32208 -0.216378 0.0182988 3.31078 -0.116884 0.00842862 3.31097 -0.107178 0.10812 
3.32229 -0.206671 0.117633 3.42413 -0.203775 0.0175586 3.41177 -0.104219 0.00810058 
3.41198 -0.0949026 0.107834 3.42437 -0.194458 0.116978 3.52589 -0.190086 0.0167236 
3.51262 -0.090461 0.00773027 3.51286 -0.0815848 0.10751 3.52616 -0.18121 0.116238 
3.62732 -0.175469 0.0157937 3.6133 -0.075767 0.0073176 3.61356 -0.0673803 0.107149 
3.62762 -0.167083 0.115414 3.72838 -0.160097 0.0147699 3.7138 -0.0603097 0.00686269 
3.71409 -0.052462 0.106751 3.72871 -0.15225 0.114507 3.82905 -0.144166 0.0136561 
3.8141 -0.0442833 0.00636634 3.81442 -0.0370217 0.106316 3.8294 -0.136905 0.11352 
3.92928 -0.127898 0.0124622 3.91419 -0.0279093 0.00583198 3.91453 -0.0212746 0.105845 
3.92966 -0.121263 0.112463 4.02904 -0.111541 0.0112036 4.01405 -0.0114382 0.00526561 
4.0144 -0.00546197 0.105346 4.02945 -0.105563 0.111348 4.12832 -0.0953585 0.00989868 
4.11367 0.00485894 0.00467412 4.11404 0.0101577 0.104824 4.12875 -0.0900571 0.110191 
4.22711 -0.0796185 0.00856297 4.21304 0.020712 0.00406351 4.21343 0.0253233 0.104286 
4.22755 -0.0750042 0.109007 4.3254 -0.0645822 0.00720622 4.31216 0.0358599 0.00343714 
4.31257 0.0397802 0.103734 4.32585 -0.0606594 0.107803 4.42318 -0.0505051 0.00583242 
4.41104 0.050049 0.00279576 4.41146 0.0532772 0.103168 4.42365 -0.047275 0.106583 
4.52046 -0.0376406 0.00444157 4.50966 0.0630267 0.00213891 4.51009 0.065562 0.102587 
4.52094 -0.0351038 0.105347 4.61723 -0.0262418 0.00303138 4.60803 0.074536 0.00146493 
4.60848 0.0763787 0.10199 4.61773 -0.0243998 0.104094 4.71351 -0.0165716 0.00159297 
4.70616 0.0843148 0.000768626 4.7066 0.0854721 0.101373 4.71399 -0.0154275 0.102821 
4.80938 -0.00888077 0.000200316 4.8041 0.0920652 7.16567e-05 4.80443 0.0925749 0.100733 
4.80973 -0.00843381 0.101522 4.90492 -0.00360574 -0.00105329 4.9019 0.0975472 -0.000480234 
4.90197 0.09758 0.100213 4.90493 -0.00370962 0.100478 5 0 0 
5 0.1 0 5 0.1 0.1 5 0 0.1 
0 0.2 0.1 0 0.2 0 0.0999813 0.198042 -1.07468e-05 
0.0999911 0.198083 0.099995 0.199961 0.193123 -2.46299e-05 0.19998 0.193563 0.0999803 
0.29994 0.185931 -4.82427e-05 0.299968 0.186925 0.0999567 0.399918 0.176853 -8.17625e-05 
0.399957 0.178449 0.0999231 0.499896 0.166118 -0.000125467 0.499945 0.168327 0.0998795 
0.599875 0.153965 -0.000179431 0.599934 0.156788 0.0998255 0.699853 0.14062 -0.000243734 
0.699923 0.144055 0.0997612 0.799831 0.126306 -0.000318438 0.799911 0.130352 0.0996865 
0.899809 0.11124 -0.000403574 0.899899 0.115898 0.0996014 0.999786 0.0956385 -0.000499045 
0.999887 0.100906 0.0995061 1.09976 0.0797156 -0.000604554 1.09987 0.085592 0.0994014 
1.19973 0.0636761 -0.000717998 1.19986 0.0701642 0.0992897 1.29971 0.0477317 -0.000833378 
1.29984 0.0548326 0.09918 1.39971 0.0321271 -0.000951087 1.39984 0.0398193 0.099072 
1.49973 0.0171108 -0.00106552 1.49986 0.0253652 0.0989633 1.59976 0.00290784 -0.00117708 
1.59987 0.0116725 0.0988534 1.69979 -0.0103095 -0.00127976 1.69989 -0.00108832 0.0987516 
1.79981 -0.0223953 -0.00137147 1.7999 -0.0127667 0.09866 1.89984 -0.033215 -0.00145189 
1.89991 -0.0232287 0.0985796 1.99986 -0.0426513 -0.00152094 1.99992 -0.032357 0.0985106 
2.09988 -0.050604 -0.00157864 2.09993 -0.0400516 0.0984529 2.1999 -0.05699 -0.00162506 
2.19994 -0.0462292 0.0984065 2.29993 -0.0617432 -0.00166027 2.29996 -0.0508239 0.0983713 
2.39995 -0.0648146 -0.00168437 2.39997 -0.0537867 0.0983472 2.49997 -0.0661724 -0.00169742 
2.49998 -0.0550857 0.0983342 2.59999 -0.0658016 -0.00169953 2.59999 -0.054706 0.0983321 
2.70001 -0.0637046 -0.00169078 2.7 -0.0526499 0.0983409 2.80004 -0.0599005 -0.00167125 
2.80001 -0.0489366 0.0983604 2.90006 -0.0544258 -0.00164104 2.90002 -0.0436025 0.0983907 
3.00008 -0.0473337 -0.00160022 3.00003 -0.0367008 0.0984315 3.1001 -0.0386948 -0.00154888 
3.10004 -0.0283022 0.0984829 3.20012 -0.0285964 -0.00148712 3.20006 -0.018494 0.0985447 
3.30014 -0.0171434 -0.00141502 3.30007 -0.00738094 0.0986168 3.40016 -0.00445714 -0.00133269 
3.40008 0.00491547 0.0986992 3.50019 0.00932339 -0.00124029 3.50009 0.0182565 0.0987916 
3.60021 0.0240425 -0.00113808 3.6001 0.0324863 0.0988938 3.70023 0.039527 -0.00102652 
3.70011 0.0474325 0.0990045 3.80026 0.0555925 -0.000907905 3.80013 0.0629058 0.0991215 
3.90028 0.0720281 -0.000788393 3.90014 0.0786974 0.0992354 4.00027 0.0885704 -0.000667767 
4.00014 0.0945665 0.0993463 4.10025 0.104932 -0.0005518 4.10012 0.110234 0.0994566 
4.20021 0.12083 -0.000440272 4.20011 0.125438 0.0995665 4.30019 0.136014 -0.000339355 
4.30009 0.139932 0.0996666 4.40016 0.15024 -0.000251321 4.40008 0.153466 0.0997546 
4.50013 0.163255 -0.000176639 4.50006 0.165789 0.0998293 4.6001 0.174802 -0.000115574 
4.60005 0.176644 0.0998904 4.70008 0.184611 -6.82665e-05 4.70004 0.185773 0.0999378 
4.80005 0.192421 -3.45783e-05 4.80002 0.192954 0.0999716 4.90002 0.197798 -1.45403e-05 
4.90001 0.197874 0.0999928 5 0.2 0 5 0.2 0.1 
0 0.3 0.1 0 0.3 0 0.101746 0.297812 0.000451504 
0.101819 0.297811 0.0998149 0.203764 0.292802 -6.34473e-05 0.204102 0.293214 0.0993268 
0.305662 0.285665 -0.00073362 0.306118 0.286648 0.098706 0.407391 0.276613 -0.00142591 
0.407874 0.278203 0.0980839 0.508907 0.265912 -0.00212043 0.509401 0.268115 0.0974568 
0.610201 0.253792 -0.00282192 0.610704 0.256609 0.0968223 0.711273 0.24048 -0.00353194 
0.711785 0.24391 0.0961785 0.812125 0.226198 -0.00425104 0.812647 0.23024 0.0955249 
0.912761 0.211164 -0.00497933 0.913292 0.215818 0.0948612 1.01318 0.195596 -0.00571674 
1.01372 0.20086 0.0941876 1.11339 0.179703 -0.00646272 1.11394 0.185578 0.0935042 
1.21339 0.163698 -0.00721851 1.21395 0.17018 0.0928138 1.31315 0.147725 -0.00797856 
1.31376 0.154867 0.0921212 1.41279 0.131994 -0.0086964 1.41338 0.139857 0.0914782 
1.51232 0.116947 -0.00940193 1.51282 0.125418 0.0908342 1.61164 0.102772 -0.0100487 
1.61209 0.11175 0.090241 1.7108 0.0895766 -0.0106311 1.7112 0.0990132 0.0897034 
1.80981 0.0775116 -0.0111505 1.81017 0.0873556 0.0892242 1.9087 0.0667095 -0.0116061 
1.90902 0.0769115 0.0888035 2.00748 0.0572881 -0.0119981 2.00775 0.0677983 0.0884416 
2.10617 0.0493478 -0.0123262 2.10639 0.0601162 0.0881384 2.20479 0.0429716 -0.0125908 
[...]
POINT_DATA 1020
SCALARS val double
LOOKUP_TABLE default
8.8087058259 9.4733715695 5.0726030095 4.262435495 8.7995265773 9.5390736507 5.0453688377 4.2767356085 8.6164894458 
5.1596789807 8.9558454392 5.0804178509 7.997073178 4.9211506806 8.0261644126 4.5280971129 7.179021388 4.5642669987 
7.0738419099 4.0146399565 6.2995974205 4.1717864159 6.154366926 3.5469610318 5.428288718 3.790193078 5.2611200666 
3.0974526092 4.5857843543 3.4372234751 4.3931681565 2.6683042707 3.7876762674 3.1233262817 3.5596069828 2.2678260841 
3.0596025961 2.8597075526 2.7808113831 1.9095249464 2.4517110049 2.6604075102 2.1027006049 1.6159437565 2.0571170792 
2.5381540184 1.6367291917 1.4260677096 1.9876062068 2.4968590817 1.5750478627 1.3885604348 2.2527308101 2.5160345724 
1.9374809716 1.5037878557 2.7268464238 2.571188948 2.5127399735 1.7087130601 3.2819142598 2.6456692688 3.1442417093 
1.9487615555 3.8438680063 2.7360750034 3.759933219 2.1991430637 4.3769453335 2.8465185592 4.3308096768 2.4466903257 
4.865931353 2.9700178671 4.8461589757 2.6818589788 5.3027077995 3.0971011383 5.3016376527 2.8968817383 5.6820845634 
3.2181113578 5.6945157597 3.0863387992 6.0003395755 3.3261130163 6.0226996055 3.2467421653 6.2550621213 3.4161357702 
6.2846735339 3.3759271364 6.4447038237 3.4847526671 6.4794342838 3.4725243109 6.5683017738 3.5296757232 6.6063538268 
3.5356784674 6.6252962732 3.5495107995 6.6650691721 3.5648906203 6.6154313785 3.5436106886 6.6554137627 3.5599373103 
6.538711535 3.512010727 6.5773864736 3.5208373591 6.39540244 3.4554379704 6.4311506627 3.4478553446 6.1860758162 
3.3753958073 6.217062371 3.3415419419 5.9117119568 3.2743327516 5.9357367158 3.202821925 5.5738950395 3.1559072436 
5.5881762286 3.0331554986 5.1751737302 3.0253574064 5.1760097001 2.8348240844 4.7197412222 2.8899646027 4.7019338031 
2.6114420965 4.2147373595 2.7596282724 4.1705568943 2.3688693112 3.6729755062 2.647430755 3.5901036979 2.1168621239 
3.1183382962 2.5707044811 2.9766599805 1.8715961937 2.599252595 2.5488774284 2.3665357496 1.6593812634 2.2135516821 
2.5983895486 1.8529378005 1.5216367993 2.1185801595 2.7138595467 1.6507569103 1.5173184081 2.4113654365 2.8832754656 
1.9609942359 1.6768773525 3.0131881984 3.100422119 2.6442472611 1.9643320844 3.7945266649 3.3690165739 3.4970341031 
2.3366469625 4.6743251789 3.6956968797 4.4287124406 2.7671650921 5.6142026943 4.0727886814 5.4048006884 3.2385162088 
6.5922127419 4.4884318955 6.4120349498 3.7381623407 7.5829470206 4.9207174987 7.4497148049 4.2611401825 8.5086467098 
5.3164115761 8.5240552715 4.835169174 9.2189987976 5.5807566116 9.5751342803 5.4516524923 10.185397919 5.4689781647 
10.267892205 5.4312682257 9.5249973324 4.6486193042 9.5333062278 4.6544066424 2.6640091224 2.7400145725 2.2027312279 
2.6816221141 3.271642632 2.2519524753 3.4404254132 2.1125757717 3.4508568032 2.040146725 3.4367621614 1.9966061934 
3.4117692101 1.9589018527 3.386072679 1.9256539573 3.3610470781 1.8964135704 3.3370502203 1.8706800143 3.3135912472 
1.8480658571 3.2942756492 1.8284704975 3.2784849825 1.8115489254 3.2536201138 1.7811741831 3.1182882629 1.7049749283 
2.8668991927 1.583419462 2.6001772004 1.4507082963 2.3374439203 1.3282465757 2.0817192842 1.2286944108 1.8331231606 
1.1745651949 1.6012521289 1.1742385115 1.41275861 1.200593691 1.3205594527 1.2314606361 1.3024074757 1.2577904081 
1.3035886381 1.2760002194 1.3057103953 1.2845852314 1.3036089518 1.2829818969 1.297115263 1.271217365 1.2908899147 
1.2499288201 1.3020885396 1.22077756 1.3850680777 1.1877689767 1.5695187374 1.1612402049 1.8007343158 1.1661146023 
2.049694881 1.2277393749 2.3065578596 1.3320325079 2.5675692388 1.4567129029 2.8306946937 1.5914373076 3.0986058669 
1.7321195133 3.3697787395 1.8762080441 3.6249896181 2.0060145683 3.7610595576 2.08849111 3.788287484 2.1254624207 
3.807985069 2.1498924841 3.8311870095 2.1780739481 3.8580677021 2.2104709443 3.8832013083 2.2469757725 3.8957390111 
2.2884201235 3.8800781385 2.3612767181 3.6848187901 2.5025917683 2.9754861929 2.4274870039 3.0815250108 2.9740940639 
5.0041161596 4.2097717044 5.0067099051 4.2528263829 5.0878315125 5.0374179742 4.8504142974 4.4857315592 4.4953925207 
3.9728368162 4.1056796881 3.5058647298 3.727903697 3.0574135602 3.3801608427 2.6299023694 3.073243443 2.2319033641 
2.8183336808 1.8772219478 2.6295854849 1.5886484247 2.5200727597 1.4069457044 2.5365477089 1.3794066699 2.6557949379 
1.4786636687 2.6395912622 1.6993124012 2.545929972 1.9222858911 2.5582880376 2.1644907313 2.6340292813 2.410484503 
2.731724588 2.6449747594 2.839259263 2.8591462183 2.9457993791 3.0478121748 3.04348176 3.2076125605 3.1263901247 
3.3364053802 3.1903606199 3.4327925024 3.2326083617 3.4958855486 3.2514449244 3.5251626874 3.2460897308 3.5203896394 
3.2165832052 3.481585144 3.1637960409 3.4090242033 3.0895371073 3.3032804348 2.9967712092 3.1653189857 2.8899601456 
2.996666014 2.775525577 2.7997037019 2.6623766992 2.5781837293 2.5624348917 2.3381079733 2.4909040012 2.0893126264 
2.4673304488 1.8477677347 2.5125745801 1.6404447403 2.6742948521 1.5097173996 2.9612752702 1.4943079159 2.9836181858 
1.6475393204 3.0847895984 1.9273819054 3.3078394907 2.2933507946 3.6280816778 2.7224999812 3.9993601619 3.1930225586 
4.4094986766 3.691474868 4.8368663084 4.2132616439 5.2286648359 4.7861919874 5.4900632982 5.4014722202 5.3813212601 
5.3857493114 4.5815216845 4.6267247315 9.3933638297 8.7359964027 9.4941565599 8.7630546476 8.5370562708 8.9116548508 
7.9154697017 7.9813356711 7.0966062409 7.0286249657 6.2174334323 6.1091369257 5.3472037228 5.216192798 4.5068547586 
4.3489058831 3.7129089823 3.5168735116 2.993273018 2.7423591499 2.4021658135 2.0765954729 2.0419054887 1.6366000811 
2.0084925749 1.6135497423 2.6528262195 2.0003230121 3.2006464794 2.7852944031 3.2745558363 3.3737549964 3.7498882717 
3.9290878273 4.2326821511 4.4744055909 4.6960535097 4.9810935925 5.1172240231 5.4337916302 5.4863088627 5.8255055541 
5.7974098932 6.1529287637 6.0471741205 6.414333497 6.2335656375 6.608715627 6.3553405191 6.7354582041 6.4117761947 
6.7941969951 6.4025437215 6.784761781 6.3276562612 6.7071536392 6.1874736508 6.5615477632 5.9827634085 6.3483230229 
5.7148370901 6.0681275776 5.3858087155 5.7220027429 4.9990759147 5.3116170707 4.560253076 4.8397379862 4.0790058728 
4.3112729583 3.5730259634 3.735706145 3.0748484043 3.1330683934 2.6531386294 2.5479284151 2.3995959541 2.0835410693 
2.8590898004 1.8812457526 2.8631050381 2.0540839502 3.0060525478 2.6925361489 3.7318882452 3.479814785 4.5867769052 
4.3869681183 5.5177706581 5.3551012338 6.4918064149 6.3602688425 7.4806768958 7.3975332861 8.4060402874 8.4720428159 
9.1177745838 9.523513977 10.08270004 10.214797081 9.4311566421 9.4903813262 8.4154315094 9.4498702097 5.0451515224 
3.9839158776 9.0088564273 4.9912451656 8.0085030304 4.3585357137 7.0204101527 3.799532523 6.0815067465 3.2950625412 
5.1756038564 2.8078189065 4.2945208262 2.3341988129 3.4441386285 1.8772236292 2.6418117738 1.4459454995 1.9320282144 
1.0628825243 1.4375932365 0.78884117554 1.3827913861 0.75153500067 1.7808458825 0.96490479757 2.3867962004 1.286269582 
3.0382522806 1.6307709725 3.6691930688 1.9653649699 4.2530924655 2.2765995088 4.7791357565 2.5582767821 5.2428077923 
2.8073106194 5.6417545165 3.0218812199 5.9744100155 3.2008990436 6.2396647931 3.3437074215 6.4367686082 3.4499104098 
6.5652468542 3.5192680258 6.624823567 3.5516440719 6.6153709498 3.5469805868 6.5368855008 3.5052882929 6.3894869211 
3.426648457 6.1734393949 3.3112263214 5.8892023295 3.1593003841 5.5375290477 2.9713182389 5.1196503864 2.7480033404 
4.6376165587 2.4905667767 4.0949596804 2.201157139 3.4981886849 1.883851576 2.8608757136 1.5471033656 2.2164245016 
1.2104093246 1.6591660512 0.924500859 1.4289515614 0.81333036297 1.7537737128 0.99743408006 2.4694580562 1.3765267178 
3.3497509936 1.8414140793 4.3028334697 2.3481609013 5.2962922522 2.8792033619 6.3196434626 3.4280962624 7.3803729254 
3.99728394 8.4956388463 4.6262933168 9.6270511331 5.3359917887 10.159506345 5.4176286362 9.0913514088 4.3108974718 
1.9953506252 1.919198603 1.7420919368 1.5074229909 1.3611454392 1.2114481739 1.081558038 0.98026533193 0.91082395649 
0.86527292432 0.83408349867 0.81124585817 0.79138003491 0.77235462976 0.75402305663 0.74722847589 0.78257184026 0.856218708 
0.9393625891 1.0183983726 1.0885932687 1.14803392 1.1958469277 1.2315864279 1.2550154864 1.2660124717 1.2645313982 
1.2505880088 1.2242636274 1.1857287559 1.1353007842 1.0735778584 1.0017723877 0.92265271692 0.84355631439 0.78508061253 
0.77600565358 0.80704153547 0.85367593277 0.9028356454 0.94503802519 0.98162665715 1.0230847483 1.0809696482 1.1703260867 
1.2971554667 1.4547667378 1.6178372404 1.8779887232 2.1486445176 2.1136564129 5.0411813691 3.9830798344 4.9862158336 
4.3536900343 3.7950211619 3.2907921949 2.8037595435 2.3303364039 1.8734534205 1.4419573035 1.058021546 0.78219021323 
0.73779690187 0.94976485116 1.263783312 1.6192126985 1.9567794124 2.2683248659 2.5505433398 2.7997139031 3.0141667389 
3.1929692331 3.3355528096 3.4415463253 3.5107116405 3.5429097619 3.5380808957 3.4962355616 3.4174563146 3.3019114374 
3.1498849887 2.9618329446 2.7384858556 2.4810440677 2.1915873078 1.874051891 1.5367183088 1.1994795027 0.90843598454 
0.78881316457 0.97379785059 1.3686716761 1.8399233343 2.34839975 2.8807806805 3.4303645974 3.9998499387 4.628919764 
5.3388916413 5.4211298288 4.3163092234 9.444008181 8.4115154215 9.0032169313 8.0034485574 7.0157526003 6.0770631072 
5.1713159372 4.2903238035 3.4400895777 2.6388937291 1.934440289 1.4553730228 1.4231999939 1.8520937731 2.471246118 
3.1188330338 3.7357025153 4.3098698052 4.8331998682 5.2967893567 5.6960519498 6.0288559831 6.2940834286 6.491070418 
6.6193983715 6.6788144304 6.6691975212 6.5905451639 6.4429762742 6.2267520849 5.9423220957 5.5904105496 5.1721804783 
4.6895720809 4.1460794052 3.5486986474 2.9131515375 2.2777212156 1.7360467044 1.5171478259 1.8229285061 2.5094190086 
3.3675173632 4.308518307 5.2986595008 6.3218362514 7.3829231589 8.4981601046 9.62909048 10.161404728 9.0945785879 
9.2928363952 9.9624684869 5.4938037006 4.3949575502 8.6901818395 4.7246111424 7.8462173175 4.2020518262 6.9155420007 
3.6910124489 5.9752504939 3.183342358 5.0523003789 2.6824726517 4.1491284199 2.1913396523 3.268101959 1.709504714 
2.4186972529 1.2391891232 1.6347899636 0.79136229514 1.0601258353 0.44410777936 1.0180534292 0.42815412762 1.5163960259 
0.73652649523 2.2138995182 1.1384563285 2.9250438934 1.5338904278 3.5957023764 1.9014111496 4.2067965081 2.2343700499 
4.7519455867 2.5307797977 5.2292459767 2.7900033278 5.6380276766 3.0117682983 5.9778360546 3.1959104451 6.2482757049 
3.3423327942 6.4490378432 3.4509736346 6.5799117781 3.5217894057 6.6407702668 3.5547495095 6.6315516905 3.5498355759 
6.5522496441 3.5070412741 6.4029118538 3.4263726848 6.1836491737 3.3078498494 5.8946578359 3.1515101195 5.5362624069 
2.9574143443 5.1089930075 2.7256591187 4.6137215081 2.4564065977 4.0519261979 2.1499592402 3.4263729639 1.806944812 
2.7434182805 1.4288499766 2.0222344728 1.0204623933 1.3404467602 0.60760313431 1.0055889515 0.38824970357 1.3536311387 
0.59381781517 2.165214126 1.0781307564 3.1157961538 1.6108965213 4.1142423274 2.1590547412 5.1390609774 2.7174697575 
6.185526864 3.2861915392 7.2509844716 3.8621354241 8.3073875264 4.4419477026 9.2729885079 5.034776081 10.710312559 
5.8980929871 10.039078088 4.7434439487 2.3329193916 0.43702887514 1.6884030066 1.4256911135 1.2623813314 1.0879389425 
0.91978092391 0.75311668315 0.59005412743 0.43531570747 0.32104569314 0.30159924005 0.3125501783 0.34231746596 0.42657015268 
0.55036375081 0.67247533913 0.78410711609 0.88384700377 0.97143021773 1.0465944185 1.1091359452 1.1589153632 1.1958436227 
1.2198651651 1.230947073 1.2290715659 1.2142320967 1.1864320915 1.1456859851 1.0920230327 1.0254955689 0.94619542861 
0.8542852931 0.75006841972 0.63416492444 0.50816231656 0.37885157935 0.28998303083 0.27729081892 0.28950723585 0.38605052242 
0.55981583601 0.74561825923 0.93515998603 1.1261848024 1.3238263062 1.5092696848 1.801844993 2.5072773907 0.48278201425 
5.521146962 4.4219256193 4.7570049944 4.2349325905 3.7244534288 3.2173045314 2.7169700664 2.2263701754 1.7450311343 
1.2749420409 0.82638569255 0.47125886839 0.43806349857 0.74657956668 1.1682157439 1.5775556036 1.955623839 2.292935174 
2.5902385443 2.849234217 3.070472729 3.2540633895 3.3999589928 3.5080930817 3.5784120323 3.6108800235 3.6054770367 
3.5621965768 3.481045032 3.3620432598 3.205231022 3.0106753001 2.7784837231 2.5088239138 2.2019501565 1.8582267098 
1.4783921098 1.065166736 0.64368112994 0.41577561905 0.62102678996 1.1140321302 1.6569412822 2.2102226642 2.7705036101 
3.3399853296 3.9163885529 4.4964740791 5.0895232924 5.946279769 4.7910118801 9.9912977894 9.3185733886 8.7231978496 
7.8803827371 6.9503029044 6.0104337612 5.0878187512 4.1848194376 3.3038014016 2.4545040102 1.6712860383 1.0956243712 
1.0485846089 1.5554958144 2.2762321151 3.0037404841 3.6804608725 4.2918386361 4.8361192144 5.3129902274 5.7215548438 
6.0610796212 6.3311281726 6.5314322821 6.6618175886 6.7221744007 6.712447043 6.6326303199 6.4827713727 6.2629784593 
5.973439704 5.614458176 5.1865200125 4.6904421344 4.1277219649 3.5013986895 2.818253891 2.0970148484 1.4135556954 
1.067044838 1.4068598032 2.2192514635 3.1711555344 4.1692675716 5.193833714 6.2407862869 7.3069586681 8.3636640724 
9.3283987289 10.76172221 10.086228148 
